data_1365-ICSD
#?2008 by Fachinformationszentrum Karlsruhe, and the U.S. Secretary of 
#Commerce on behalf of the United States.  All rights reserved.
_database_code_ICSD                1365
_audit_creation_date               1980/01/01
_audit_update_record               2000/07/15
_chemical_name_systematic
;
Dibarium Tetratitanodititanate(III)
;
_chemical_formula_structural       'Ba2 (Ti6 O13)'
_chemical_formula_sum              'Ba2 O13 Ti6'
_publ_section_title
;
Ueber ein Bariumoxotitanat(III,IV) : Ba2 Ti6 O13
;
loop_
_citation_id
_citation_journal_abbrev
_citation_year
_citation_journal_volume
_citation_page_first
_citation_page_last
_citation_journal_id_ASTM
primary 'Zeitschrift fuer Anorganische und Allgemeine Chemie'
 1977 435 243 246 ZAACAB
_publ_author_name
;
Schmachtel, J.;Mueller-Buschbaum, H.
;
_cell_length_a                     15.004
_cell_length_b                     3.953
_cell_length_c                     9.085
_cell_angle_alpha                  90.
_cell_angle_beta                   98.01
_cell_angle_gamma                  90.
_cell_volume                       533.58
_cell_formula_units_Z              2
_symmetry_space_group_name_H-M     'C 1 2/m 1'
_symmetry_Int_Tables_number        12
_refine_ls_R_factor_all            .048
loop_
_symmetry_equiv_pos_site_id
_symmetry_equiv_pos_as_xyz
  1	'-x, y, -z'
  2	'-x, -y, -z'
  3	'x, -y, z'
  4	'x, y, z'
  5	'-x+.5, y+.5, -z'
  6	'-x+.5, -y+.5, -z'
  7	'x+.5, -y+.5, z'
  8	'x+.5, y+.5, z'
loop_
_atom_type_symbol
_atom_type_oxidation_number
Ba2+	2
O2-	-2
Ti3+	3
Ti4+	4
loop_
_atom_site_label
_atom_site_type_symbol
_atom_site_symmetry_multiplicity
_atom_site_Wyckoff_symbol
_atom_site_fract_x
_atom_site_fract_y
_atom_site_fract_z
_atom_site_occupancy
_atom_site_attached_hydrogens
Ba1 Ba2+ 4 i 0.448 0 0.222 1. 0 
Ti1 Ti3+ 4 i 0.122 0 0.1 0.333 0 
Ti2 Ti4+ 4 i 0.122 0 0.1 0.667 0 
Ti3 Ti3+ 4 i 0.169 0 0.444 0.333 0 
Ti4 Ti4+ 4 i 0.169 0 0.444 0.667 0 
Ti5 Ti3+ 4 i 0.248 0 0.777 0.333 0 
Ti6 Ti4+ 4 i 0.248 0 0.777 0.667 0 
O1 O2- 2 a 0 0 0 1. 0 
O2 O2- 4 i 0.241 0 0.247 1. 0 
O3 O2- 4 i 0.072 0 0.301 1. 0 
O4 O2- 4 i 0.299 0 0.571 1. 0 
O5 O2- 4 i 0.129 0 0.619 1. 0 
O6 O2- 4 i 0.373 0 0.888 1. 0 
O7 O2- 4 i 0.171 0 0.917 1. 0 

#End of data_1365-ICSD


